LAMMPS data file. CGCMM style. atom_style full generated by VMD/TopoTools v1.7 on Wed Sep 04 11:24:47 EDT 2024
 55 atoms
 60 bonds
 108 angles
 173 dihedrals
 15 impropers
 11 atom types
 13 bond types
 22 angle types
 35 dihedral types
 7 improper types
 -0.500000 0.500000  xlo xhi
 -0.500000 0.500000  ylo yhi
 -0.500000 0.500000  zlo zhi

# Pair Coeffs
#
# 1  Lca
# 2  Loh
# 3  c3
# 4  c5
# 5  ca
# 6  cg
# 7  ha
# 8  hc
# 9  n1
# 10  oh
# 11  os

# Bond Coeffs
#
# 1  Lca-ca
# 2  Loh-ca
# 3  c3-c5
# 4  c3-hc
# 5  c5-c5
# 6  c5-ca
# 7  c5-hc
# 8  ca-ca
# 9  ca-cg
# 10  ca-ha
# 11  ca-oh
# 12  ca-os
# 13  cg-n1

# Angle Coeffs
#
# 1  Lca-ca-ca
# 2  Lca-ca-cg
# 3  Loh-ca-ca
# 4  c3-c5-c3
# 5  c3-c5-c5
# 6  c3-c5-ca
# 7  c5-c3-hc
# 8  c5-c5-c5
# 9  c5-c5-ca
# 10  c5-c5-hc
# 11  c5-ca-ca
# 12  ca-Lca-ca
# 13  ca-c5-ca
# 14  ca-ca-ca
# 15  ca-ca-cg
# 16  ca-ca-ha
# 17  ca-ca-oh
# 18  ca-ca-os
# 19  ca-cg-n1
# 20  ca-os-ca
# 21  hc-c3-hc
# 22  hc-c5-hc

# Dihedral Coeffs
#
# 1  Lca-ca-ca-ca
# 2  Lca-ca-ca-cg
# 3  Lca-ca-ca-os
# 4  Lca-ca-cg-n1
# 5  Loh-ca-ca-ca
# 6  Loh-ca-ca-ha
# 7  Loh-ca-ca-oh
# 8  c3-c5-c5-c5
# 9  c3-c5-c5-hc
# 10  c3-c5-ca-ca
# 11  c5-c5-c5-c5
# 12  c5-c5-c5-ca
# 13  c5-c5-c5-hc
# 14  c5-c5-ca-ca
# 15  c5-ca-ca-c5
# 16  c5-ca-ca-ca
# 17  c5-ca-ca-ha
# 18  ca-Lca-ca-ca
# 19  ca-Lca-ca-cg
# 20  ca-c5-c5-hc
# 21  ca-c5-ca-ca
# 22  ca-ca-ca-ca
# 23  ca-ca-ca-cg
# 24  ca-ca-ca-ha
# 25  ca-ca-ca-oh
# 26  ca-ca-ca-os
# 27  ca-ca-cg-n1
# 28  ca-ca-os-ca
# 29  cg-ca-ca-os
# 30  ha-ca-ca-oh
# 31  ha-ca-ca-os
# 32  hc-c3-c5-c3
# 33  hc-c3-c5-c5
# 34  hc-c3-c5-ca
# 35  os-ca-ca-os

# Improper Coeffs
#
# 1  Lca-ca-ca-cg
# 2  Loh-ca-ca-ca
# 3  c5-ca-ca-ca
# 4  ca-ca-ca-cg
# 5  ca-ca-ca-ha
# 6  ca-ca-ca-oh
# 7  ca-ca-ca-os

 Masses

 1 12.000000 # Lca
 2 12.000000 # Loh
 3 12.011000 # c3
 4 12.011000 # c5
 5 12.011000 # ca
 6 12.011000 # cg
 7 1.008000 # ha
 8 1.008000 # hc
 9 14.007000 # n1
 10 15.999000 # oh
 11 15.999000 # os

 Atoms # full

1 1 5 0.202127 1.213000 0.681000 -0.110000 # ca UNL
2 1 5 0.202127 1.311000 -0.631000 -0.590000 # ca UNL
3 1 5 0.110627 0.161000 -1.417000 -0.716000 # ca UNL
4 1 1 -0.026373 -1.091000 -0.861000 -0.417000 # Lca UNL
5 1 5 -0.026373 -1.193000 0.473000 -0.011000 # ca UNL
6 1 5 0.110627 -0.040000 1.250000 0.145000 # ca UNL
7 1 6 0.115927 -0.160000 2.618000 0.560000 # cg UNL
8 1 6 0.115927 0.244000 -2.796000 -1.098000 # cg UNL
9 1 9 -0.177773 0.282000 -3.921000 -1.381000 # n1 UNL
10 1 9 -0.177773 -0.289000 3.725000 0.886000 # n1 UNL
11 1 11 -0.434373 2.331000 1.428000 0.170000 # os UNL
12 1 5 0.183927 3.526000 0.768000 0.073000 # ca UNL
13 1 5 0.183927 3.634000 -0.475000 -0.555000 # ca UNL
14 1 11 -0.434373 2.523000 -1.173000 -0.956000 # os UNL
15 1 5 0.001627 4.639000 1.364000 0.654000 # ca UNL
16 1 5 -0.016473 5.864000 0.709000 0.563000 # ca UNL
17 1 5 -0.021073 6.003000 -0.452000 -0.201000 # ca UNL
18 1 5 0.001227 4.882000 -1.069000 -0.748000 # ca UNL
19 1 4 0.035927 7.125000 1.031000 1.323000 # c5 UNL
20 1 4 -0.017173 8.173000 0.080000 0.685000 # c5 UNL
21 1 4 0.004627 7.446000 -0.875000 -0.310000 # c5 UNL
22 1 3 -0.042773 7.662000 -2.344000 0.066000 # c3 UNL
23 1 3 -0.042773 7.955000 -0.622000 -1.739000 # c3 UNL
24 1 4 -0.017173 6.906000 0.729000 2.839000 # c5 UNL
25 1 4 0.004627 7.212000 2.010000 3.662000 # c5 UNL
26 1 5 -0.021073 7.544000 3.030000 2.602000 # ca UNL
27 1 5 -0.016573 7.516000 2.481000 1.312000 # ca UNL
28 1 3 -0.042773 5.987000 2.432000 4.485000 # c3 UNL
29 1 3 -0.042773 8.410000 1.772000 4.591000 # c3 UNL
30 1 5 0.000427 7.847000 4.375000 2.800000 # ca UNL
31 1 5 0.171427 8.125000 5.157000 1.684000 # ca UNL
32 1 5 0.171427 8.106000 4.604000 0.400000 # ca UNL
33 1 5 0.000727 7.801000 3.265000 0.198000 # ca UNL
34 1 10 -0.490373 8.421000 6.489000 1.794000 # oh UNL
35 1 2 -0.490373 8.384000 5.392000 -0.681000 # Loh UNL
36 1 7 0.078827 4.540000 2.295000 1.205000 # ha UNL
37 1 7 0.078727 4.965000 -2.006000 -1.289000 # ha UNL
38 1 8 0.041427 8.712000 -0.494000 1.450000 # hc UNL
39 1 8 0.041427 8.959000 0.646000 0.167000 # hc UNL
40 1 8 0.036727 7.267000 -2.566000 1.063000 # hc UNL
41 1 8 0.036727 8.729000 -2.596000 0.061000 # hc UNL
42 1 8 0.036727 7.164000 -3.016000 -0.642000 # hc UNL
43 1 8 0.036727 7.819000 0.425000 -2.034000 # hc UNL
44 1 8 0.036727 7.420000 -1.237000 -2.472000 # hc UNL
45 1 8 0.036727 9.023000 -0.854000 -1.823000 # hc UNL
46 1 8 0.041427 7.532000 -0.107000 3.177000 # hc UNL
47 1 8 0.041427 5.879000 0.390000 3.036000 # hc UNL
48 1 8 0.036727 5.123000 2.639000 3.842000 # hc UNL
49 1 8 0.036727 6.185000 3.339000 5.067000 # hc UNL
50 1 8 0.036727 5.698000 1.644000 5.190000 # hc UNL
51 1 8 0.036727 9.301000 1.472000 4.026000 # hc UNL
52 1 8 0.036727 8.192000 0.980000 5.316000 # hc UNL
53 1 8 0.036727 8.669000 2.676000 5.154000 # hc UNL
54 1 7 0.078727 7.861000 4.793000 3.800000 # ha UNL
55 1 7 0.078727 7.775000 2.856000 -0.806000 # ha UNL

 Bonds

1 8 1 2
2 8 1 6
3 12 1 11
4 8 2 3
5 12 2 14
6 1 3 4
7 9 3 8
8 1 4 5
9 8 5 6
10 9 6 7
11 13 7 10
12 13 8 9
13 12 11 12
14 8 12 13
15 8 12 15
16 12 13 14
17 8 13 18
18 8 15 16
19 10 15 36
20 8 16 17
21 6 16 19
22 8 17 18
23 6 17 21
24 10 18 37
25 5 19 20
26 5 19 24
27 6 19 27
28 5 20 21
29 7 20 38
30 7 20 39
31 3 21 22
32 3 21 23
33 4 22 40
34 4 22 41
35 4 22 42
36 4 23 43
37 4 23 44
38 4 23 45
39 5 24 25
40 7 24 46
41 7 24 47
42 6 25 26
43 3 25 28
44 3 25 29
45 8 26 27
46 8 26 30
47 8 27 33
48 4 28 48
49 4 28 49
50 4 28 50
51 4 29 51
52 4 29 52
53 4 29 53
54 8 30 31
55 10 30 54
56 8 31 32
57 11 31 34
58 8 32 33
59 2 32 35
60 10 33 55

 Angles

1 14 2 1 6
2 18 2 1 11
3 18 6 1 11
4 14 1 2 3
5 18 1 2 14
6 18 3 2 14
7 1 2 3 4
8 15 2 3 8
9 2 4 3 8
10 12 3 4 5
11 1 4 5 6
12 14 1 6 5
13 15 1 6 7
14 15 5 6 7
15 19 6 7 10
16 19 3 8 9
17 20 1 11 12
18 18 11 12 13
19 18 11 12 15
20 14 13 12 15
21 18 12 13 14
22 14 12 13 18
23 18 14 13 18
24 20 2 14 13
25 14 12 15 16
26 16 12 15 36
27 16 16 15 36
28 14 15 16 17
29 11 15 16 19
30 11 17 16 19
31 14 16 17 18
32 11 16 17 21
33 11 18 17 21
34 14 13 18 17
35 16 13 18 37
36 16 17 18 37
37 9 16 19 20
38 9 16 19 24
39 13 16 19 27
40 8 20 19 24
41 9 20 19 27
42 9 24 19 27
43 8 19 20 21
44 10 19 20 38
45 10 19 20 39
46 10 21 20 38
47 10 21 20 39
48 22 38 20 39
49 9 17 21 20
50 6 17 21 22
51 6 17 21 23
52 5 20 21 22
53 5 20 21 23
54 4 22 21 23
55 7 21 22 40
56 7 21 22 41
57 7 21 22 42
58 21 40 22 41
59 21 40 22 42
60 21 41 22 42
61 7 21 23 43
62 7 21 23 44
63 7 21 23 45
64 21 43 23 44
65 21 43 23 45
66 21 44 23 45
67 8 19 24 25
68 10 19 24 46
69 10 19 24 47
70 10 25 24 46
71 10 25 24 47
72 22 46 24 47
73 9 24 25 26
74 5 24 25 28
75 5 24 25 29
76 6 26 25 28
77 6 26 25 29
78 4 28 25 29
79 11 25 26 27
80 11 25 26 30
81 14 27 26 30
82 11 19 27 26
83 11 19 27 33
84 14 26 27 33
85 7 25 28 48
86 7 25 28 49
87 7 25 28 50
88 21 48 28 49
89 21 48 28 50
90 21 49 28 50
91 7 25 29 51
92 7 25 29 52
93 7 25 29 53
94 21 51 29 52
95 21 51 29 53
96 21 52 29 53
97 14 26 30 31
98 16 26 30 54
99 16 31 30 54
100 14 30 31 32
101 17 30 31 34
102 17 32 31 34
103 14 31 32 33
104 3 31 32 35
105 3 33 32 35
106 14 27 33 32
107 16 27 33 55
108 16 32 33 55

 Dihedrals

1 22 6 1 2 3
2 26 6 1 2 14
3 26 11 1 2 3
4 35 11 1 2 14
5 22 2 1 6 5
6 23 2 1 6 7
7 26 11 1 6 5
8 29 11 1 6 7
9 28 2 1 11 12
10 28 6 1 11 12
11 1 1 2 3 4
12 23 1 2 3 8
13 3 14 2 3 4
14 29 14 2 3 8
15 28 1 2 14 13
16 28 3 2 14 13
17 18 2 3 4 5
18 19 8 3 4 5
19 27 2 3 8 9
20 4 4 3 8 9
21 18 3 4 5 6
22 1 4 5 6 1
23 2 4 5 6 7
24 27 1 6 7 10
25 27 5 6 7 10
26 28 1 11 12 13
27 28 1 11 12 15
28 35 11 12 13 14
29 26 11 12 13 18
30 26 15 12 13 14
31 22 15 12 13 18
32 26 11 12 15 16
33 31 11 12 15 36
34 22 13 12 15 16
35 24 13 12 15 36
36 28 12 13 14 2
37 28 18 13 14 2
38 22 12 13 18 17
39 24 12 13 18 37
40 26 14 13 18 17
41 31 14 13 18 37
42 22 12 15 16 17
43 16 12 15 16 19
44 24 36 15 16 17
45 17 36 15 16 19
46 22 15 16 17 18
47 16 15 16 17 21
48 16 19 16 17 18
49 15 19 16 17 21
50 14 15 16 19 20
51 14 15 16 19 24
52 21 15 16 19 27
53 14 17 16 19 20
54 14 17 16 19 24
55 21 17 16 19 27
56 22 16 17 18 13
57 24 16 17 18 37
58 16 21 17 18 13
59 17 21 17 18 37
60 14 16 17 21 20
61 10 16 17 21 22
62 10 16 17 21 23
63 14 18 17 21 20
64 10 18 17 21 22
65 10 18 17 21 23
66 12 16 19 20 21
67 20 16 19 20 38
68 20 16 19 20 39
69 11 24 19 20 21
70 13 24 19 20 38
71 13 24 19 20 39
72 12 27 19 20 21
73 20 27 19 20 38
74 20 27 19 20 39
75 12 16 19 24 25
76 20 16 19 24 46
77 20 16 19 24 47
78 11 20 19 24 25
79 13 20 19 24 46
80 13 20 19 24 47
81 12 27 19 24 25
82 20 27 19 24 46
83 20 27 19 24 47
84 21 16 19 27 26
85 21 16 19 27 33
86 14 20 19 27 26
87 14 20 19 27 33
88 14 24 19 27 26
89 14 24 19 27 33
90 12 19 20 21 17
91 8 19 20 21 22
92 8 19 20 21 23
93 20 38 20 21 17
94 9 38 20 21 22
95 9 38 20 21 23
96 20 39 20 21 17
97 9 39 20 21 22
98 9 39 20 21 23
99 34 17 21 22 40
100 34 17 21 22 41
101 34 17 21 22 42
102 33 20 21 22 40
103 33 20 21 22 41
104 33 20 21 22 42
105 32 23 21 22 40
106 32 23 21 22 41
107 32 23 21 22 42
108 34 17 21 23 43
109 34 17 21 23 44
110 34 17 21 23 45
111 33 20 21 23 43
112 33 20 21 23 44
113 33 20 21 23 45
114 32 22 21 23 43
115 32 22 21 23 44
116 32 22 21 23 45
117 12 19 24 25 26
118 8 19 24 25 28
119 8 19 24 25 29
120 20 46 24 25 26
121 9 46 24 25 28
122 9 46 24 25 29
123 20 47 24 25 26
124 9 47 24 25 28
125 9 47 24 25 29
126 14 24 25 26 27
127 14 24 25 26 30
128 10 28 25 26 27
129 10 28 25 26 30
130 10 29 25 26 27
131 10 29 25 26 30
132 33 24 25 28 48
133 33 24 25 28 49
134 33 24 25 28 50
135 34 26 25 28 48
136 34 26 25 28 49
137 34 26 25 28 50
138 32 29 25 28 48
139 32 29 25 28 49
140 32 29 25 28 50
141 33 24 25 29 51
142 33 24 25 29 52
143 33 24 25 29 53
144 34 26 25 29 51
145 34 26 25 29 52
146 34 26 25 29 53
147 32 28 25 29 51
148 32 28 25 29 52
149 32 28 25 29 53
150 15 25 26 27 19
151 16 25 26 27 33
152 16 30 26 27 19
153 22 30 26 27 33
154 16 25 26 30 31
155 17 25 26 30 54
156 22 27 26 30 31
157 24 27 26 30 54
158 16 19 27 33 32
159 17 19 27 33 55
160 22 26 27 33 32
161 24 26 27 33 55
162 22 26 30 31 32
163 25 26 30 31 34
164 24 54 30 31 32
165 30 54 30 31 34
166 22 30 31 32 33
167 5 30 31 32 35
168 25 34 31 32 33
169 7 34 31 32 35
170 22 31 32 33 27
171 24 31 32 33 55
172 5 35 32 33 27
173 6 35 32 33 55

 Impropers

1 7 11 1 6 2
2 7 14 2 3 1
3 1 4 2 3 8
4 4 1 5 6 7
5 7 11 12 15 13
6 7 14 13 18 12
7 5 36 15 16 12
8 3 21 16 17 18
9 5 13 17 18 37
10 3 30 26 27 25
11 3 19 26 27 33
12 5 54 30 31 26
13 6 34 31 32 30
14 2 35 31 32 33
15 5 27 32 33 55

