LAMMPS data file. CGCMM style. atom_style full generated by VMD/TopoTools v1.7 on Wed Sep 04 11:24:47 EDT 2024
55 atoms
60 bonds
108 angles
173 dihedrals
15 impropers
11 atom types
13 bond types
22 angle types
35 dihderal types
7 improper types
-1.193 9.301 xlo xhi
-3.921 6.489 ylo yhi
-2.472 5.316 zlo zhi

Masses
1 12.01 # Lca
2 16.0 # Loh
3 12.01 # c3
4 12.01 # c5
5 12.01 # ca
6 12.01 # cg
7 1.008 # ha
8 1.008 # hc
9 14.01 # n1
10 16.0 # oh
11 16.0 # os

Pair Coeffs
1 0.0988 3.3152123099438304 # Lca
2 0.093 3.242871334030835 # Loh
3 0.1078 3.397709531243626 # c3
4 0.1078 3.397709531243626 # c5
5 0.0988 3.3152123099438304 # ca
6 0.1596 3.478959494338025 # cg
7 0.0161 2.62547852235958 # ha
8 0.0208 2.600176998764394 # hc
9 0.1098 3.2735182499348627 # n1
10 0.093 3.242871334030835 # oh
11 0.0726 3.156097798883966 # os

Bond Coeffs
1 354.25 1.3986 # Lca,ca
2 348.55 1.3644 # Loh,ca
3 227.64 1.5372 # c3,c5
4 345.25 1.0962 # c3,hc
5 220.1 1.5483 # c5,c5
6 243.6 1.5151 # c5,ca
7 346.43 1.0954 # c5,hc
8 354.25 1.3986 # ca,ca
9 317.41 1.4318 # ca,cg
10 360.69 1.086 # ca,ha
11 348.55 1.3644 # ca,oh
12 343.34 1.3688 # ca,os
13 744.03 1.1643 # cg,n1

Angle Coeffs
1 63.67 120.02 # Lca,ca,ca
2 62.85 120.25 # Lca,ca,cg
3 78.86 119.9 # Loh,ca,ca
4 60.44 110.28 # c3,c5,c3
5 59.33 113.6 # c3,c5,c5
6 60.11 113.07 # c3,c5,ca
7 43.06 110.53 # c5,c3,hc
8 61.84 103.83 # c5,c5,c5
9 62.2 104.83 # c5,c5,ca
10 42.65 111.17 # c5,c5,hc
11 60.47 121.87 # c5,ca,ca
12 63.67 120.02 # ca,Lca,ca
13 60.71 112.52 # ca,c5,ca
14 63.67 120.02 # ca,ca,ca
15 62.85 120.25 # ca,ca,cg
16 44.9 119.88 # ca,ca,ha
17 78.86 119.9 # ca,ca,oh
18 79.0 119.11 # ca,ca,os
19 58.3 179.52 # ca,cg,n1
20 89.67 119.87 # ca,os,ca
21 35.8 107.73 # hc,c3,hc
22 35.91 107.22 # hc,c5,hc

Dihedral Coeffs
1 1 3.625 2 180.0 # Lca,ca,ca,ca
2 1 3.625 2 180.0 # Lca,ca,ca,cg
3 1 3.625 2 180.0 # Lca,ca,ca,os
4 1 0.0 2.0 180.0 # Lca,ca,cg,n1
5 1 3.625 2 180.0 # Loh,ca,ca,ca
6 1 3.625 2 180.0 # Loh,ca,ca,ha
7 1 3.625 2 180.0 # Loh,ca,ca,oh
8 1 0.52 3.0 0.0 # c3,c5,c5,c5
9 1 0.13 3.0 0.0 # c3,c5,c5,hc
10 1 0.24 2.0 180.0 # c3,c5,ca,ca
11 1 0.52 3.0 0.0 # c5,c5,c5,c5
12 1 0.15555555555555556 3.0 0.0 # c5,c5,c5,ca
13 1 0.13 3.0 0.0 # c5,c5,c5,hc
14 1 0.24 2.0 180.0 # c5,c5,ca,ca
15 1 3.625 2 180.0 # c5,ca,ca,c5
16 1 3.625 2 180.0 # c5,ca,ca,ca
17 1 3.625 2 180.0 # c5,ca,ca,ha
18 1 3.625 2 180.0 # ca,Lca,ca,ca
19 1 3.625 2 180.0 # ca,Lca,ca,cg
20 1 0.15555555555555556 3.0 0.0 # ca,c5,c5,hc
21 1 0.0 2.0 180.0 # ca,c5,ca,ca
22 1 3.625 2 180.0 # ca,ca,ca,ca
23 1 3.625 2 180.0 # ca,ca,ca,cg
24 1 3.625 2 180.0 # ca,ca,ca,ha
25 1 3.625 2 180.0 # ca,ca,ca,oh
26 1 3.625 2 180.0 # ca,ca,ca,os
27 1 0.0 2.0 180.0 # ca,ca,cg,n1
28 1 0.9 2 180.0 # ca,ca,os,ca
29 1 3.625 2 180.0 # cg,ca,ca,os
30 1 3.625 2 180.0 # ha,ca,ca,oh
31 1 3.625 2 180.0 # ha,ca,ca,os
32 1 0.13 3.0 0.0 # hc,c3,c5,c3
33 1 0.13 3.0 0.0 # hc,c3,c5,c5
34 1 0.15555555555555556 3.0 0.0 # hc,c3,c5,ca
35 1 3.625 2 180.0 # os,ca,ca,os

Improper Coeffs
1 1.1 -1 2 # Lca,ca,ca,cg
2 1.1 -1 2 # Loh,ca,ca,ca
3 1.1 -1 2 # c5,ca,ca,ca
4 1.1 -1 2 # ca,ca,ca,cg
5 1.1 -1 2 # ca,ca,ca,ha
6 1.1 -1 2 # ca,ca,ca,oh
7 1.1 -1 2 # ca,ca,ca,os

Atoms # full
1 1 5 0.202127 1.213 0.681 -0.11 # ca
2 1 5 0.202127 1.311 -0.631 -0.59 # ca
3 1 5 0.110627 0.161 -1.417 -0.716 # ca
4 1 1 -0.026373 -1.091 -0.861 -0.417 # ca
5 1 5 -0.026373 -1.193 0.473 -0.011 # ca
6 1 5 0.110627 -0.04 1.25 0.145 # ca
7 1 6 0.115927 -0.16 2.618 0.56 # cg
8 1 6 0.115927 0.244 -2.796 -1.098 # cg
9 1 9 -0.177773 0.282 -3.921 -1.381 # n1
10 1 9 -0.177773 -0.289 3.725 0.886 # n1
11 1 11 -0.434373 2.331 1.428 0.17 # os
12 1 5 0.183927 3.526 0.768 0.073 # ca
13 1 5 0.183927 3.634 -0.475 -0.555 # ca
14 1 11 -0.434373 2.523 -1.173 -0.956 # os
15 1 5 0.001627 4.639 1.364 0.654 # ca
16 1 5 -0.016473 5.864 0.709 0.563 # ca
17 1 5 -0.021073 6.003 -0.452 -0.201 # ca
18 1 5 0.001227 4.882 -1.069 -0.748 # ca
19 1 4 0.035927 7.125 1.031 1.323 # c5
20 1 4 -0.017173 8.173 0.08 0.685 # c5
21 1 4 0.004627 7.446 -0.875 -0.31 # c5
22 1 3 -0.042773 7.662 -2.344 0.066 # c3
23 1 3 -0.042773 7.955 -0.622 -1.739 # c3
24 1 4 -0.017173 6.906 0.729 2.839 # c5
25 1 4 0.004627 7.212 2.01 3.662 # c5
26 1 5 -0.021073 7.544 3.03 2.602 # ca
27 1 5 -0.016573 7.516 2.481 1.312 # ca
28 1 3 -0.042773 5.987 2.432 4.485 # c3
29 1 3 -0.042773 8.41 1.772 4.591 # c3
30 1 5 0.000427 7.847 4.375 2.8 # ca
31 1 5 0.171427 8.125 5.157 1.684 # ca
32 1 5 0.171427 8.106 4.604 0.4 # ca
33 1 5 0.000727 7.801 3.265 0.198 # ca
34 1 10 -0.490373 8.421 6.489 1.794 # oh
35 1 2 -0.490373 8.384 5.392 -0.681 # oh
36 1 7 0.078827 4.54 2.295 1.205 # ha
37 1 7 0.078727 4.965 -2.006 -1.289 # ha
38 1 8 0.041427 8.712 -0.494 1.45 # hc
39 1 8 0.041427 8.959 0.646 0.167 # hc
40 1 8 0.036727 7.267 -2.566 1.063 # hc
41 1 8 0.036727 8.729 -2.596 0.061 # hc
42 1 8 0.036727 7.164 -3.016 -0.642 # hc
43 1 8 0.036727 7.819 0.425 -2.034 # hc
44 1 8 0.036727 7.42 -1.237 -2.472 # hc
45 1 8 0.036727 9.023 -0.854 -1.823 # hc
46 1 8 0.041427 7.532 -0.107 3.177 # hc
47 1 8 0.041427 5.879 0.39 3.036 # hc
48 1 8 0.036727 5.123 2.639 3.842 # hc
49 1 8 0.036727 6.185 3.339 5.067 # hc
50 1 8 0.036727 5.698 1.644 5.19 # hc
51 1 8 0.036727 9.301 1.472 4.026 # hc
52 1 8 0.036727 8.192 0.98 5.316 # hc
53 1 8 0.036727 8.669 2.676 5.154 # hc
54 1 7 0.078727 7.861 4.793 3.8 # ha
55 1 7 0.078727 7.775 2.856 -0.806 # ha

Bonds
1 8 1 2
2 8 1 6
3 12 1 11
4 8 2 3
5 12 2 14
6 1 3 4
7 9 3 8
8 1 4 5
9 8 5 6
10 9 6 7
11 13 7 10
12 13 8 9
13 12 11 12
14 8 12 13
15 8 12 15
16 12 13 14
17 8 13 18
18 8 15 16
19 10 15 36
20 8 16 17
21 6 16 19
22 8 17 18
23 6 17 21
24 10 18 37
25 5 19 20
26 5 19 24
27 6 19 27
28 5 20 21
29 7 20 38
30 7 20 39
31 3 21 22
32 3 21 23
33 4 22 40
34 4 22 41
35 4 22 42
36 4 23 43
37 4 23 44
38 4 23 45
39 5 24 25
40 7 24 46
41 7 24 47
42 6 25 26
43 3 25 28
44 3 25 29
45 8 26 27
46 8 26 30
47 8 27 33
48 4 28 48
49 4 28 49
50 4 28 50
51 4 29 51
52 4 29 52
53 4 29 53
54 8 30 31
55 10 30 54
56 8 31 32
57 11 31 34
58 8 32 33
59 2 32 35
60 10 33 55

Angles
1 14 2 1 6
2 18 2 1 11
3 18 6 1 11
4 14 1 2 3
5 18 1 2 14
6 18 3 2 14
7 1 2 3 4
8 15 2 3 8
9 2 4 3 8
10 12 3 4 5
11 1 4 5 6
12 14 1 6 5
13 15 1 6 7
14 15 5 6 7
15 19 6 7 10
16 19 3 8 9
17 20 1 11 12
18 18 11 12 13
19 18 11 12 15
20 14 13 12 15
21 18 12 13 14
22 14 12 13 18
23 18 14 13 18
24 20 2 14 13
25 14 12 15 16
26 16 12 15 36
27 16 16 15 36
28 14 15 16 17
29 11 15 16 19
30 11 17 16 19
31 14 16 17 18
32 11 16 17 21
33 11 18 17 21
34 14 13 18 17
35 16 13 18 37
36 16 17 18 37
37 9 16 19 20
38 9 16 19 24
39 13 16 19 27
40 8 20 19 24
41 9 20 19 27
42 9 24 19 27
43 8 19 20 21
44 10 19 20 38
45 10 19 20 39
46 10 21 20 38
47 10 21 20 39
48 22 38 20 39
49 9 17 21 20
50 6 17 21 22
51 6 17 21 23
52 5 20 21 22
53 5 20 21 23
54 4 22 21 23
55 7 21 22 40
56 7 21 22 41
57 7 21 22 42
58 21 40 22 41
59 21 40 22 42
60 21 41 22 42
61 7 21 23 43
62 7 21 23 44
63 7 21 23 45
64 21 43 23 44
65 21 43 23 45
66 21 44 23 45
67 8 19 24 25
68 10 19 24 46
69 10 19 24 47
70 10 25 24 46
71 10 25 24 47
72 22 46 24 47
73 9 24 25 26
74 5 24 25 28
75 5 24 25 29
76 6 26 25 28
77 6 26 25 29
78 4 28 25 29
79 11 25 26 27
80 11 25 26 30
81 14 27 26 30
82 11 19 27 26
83 11 19 27 33
84 14 26 27 33
85 7 25 28 48
86 7 25 28 49
87 7 25 28 50
88 21 48 28 49
89 21 48 28 50
90 21 49 28 50
91 7 25 29 51
92 7 25 29 52
93 7 25 29 53
94 21 51 29 52
95 21 51 29 53
96 21 52 29 53
97 14 26 30 31
98 16 26 30 54
99 16 31 30 54
100 14 30 31 32
101 17 30 31 34
102 17 32 31 34
103 14 31 32 33
104 3 31 32 35
105 3 33 32 35
106 14 27 33 32
107 16 27 33 55
108 16 32 33 55

Dihedrals
1 22 6 1 2 3
2 26 6 1 2 14
3 26 11 1 2 3
4 35 11 1 2 14
5 22 2 1 6 5
6 23 2 1 6 7
7 26 11 1 6 5
8 29 11 1 6 7
9 28 2 1 11 12
10 28 6 1 11 12
11 1 1 2 3 4
12 23 1 2 3 8
13 3 14 2 3 4
14 29 14 2 3 8
15 28 1 2 14 13
16 28 3 2 14 13
17 18 2 3 4 5
18 19 8 3 4 5
19 27 2 3 8 9
20 4 4 3 8 9
21 18 3 4 5 6
22 1 4 5 6 1
23 2 4 5 6 7
24 27 1 6 7 10
25 27 5 6 7 10
26 28 1 11 12 13
27 28 1 11 12 15
28 35 11 12 13 14
29 26 11 12 13 18
30 26 15 12 13 14
31 22 15 12 13 18
32 26 11 12 15 16
33 31 11 12 15 36
34 22 13 12 15 16
35 24 13 12 15 36
36 28 12 13 14 2
37 28 18 13 14 2
38 22 12 13 18 17
39 24 12 13 18 37
40 26 14 13 18 17
41 31 14 13 18 37
42 22 12 15 16 17
43 16 12 15 16 19
44 24 36 15 16 17
45 17 36 15 16 19
46 22 15 16 17 18
47 16 15 16 17 21
48 16 19 16 17 18
49 15 19 16 17 21
50 14 15 16 19 20
51 14 15 16 19 24
52 21 15 16 19 27
53 14 17 16 19 20
54 14 17 16 19 24
55 21 17 16 19 27
56 22 16 17 18 13
57 24 16 17 18 37
58 16 21 17 18 13
59 17 21 17 18 37
60 14 16 17 21 20
61 10 16 17 21 22
62 10 16 17 21 23
63 14 18 17 21 20
64 10 18 17 21 22
65 10 18 17 21 23
66 12 16 19 20 21
67 20 16 19 20 38
68 20 16 19 20 39
69 11 24 19 20 21
70 13 24 19 20 38
71 13 24 19 20 39
72 12 27 19 20 21
73 20 27 19 20 38
74 20 27 19 20 39
75 12 16 19 24 25
76 20 16 19 24 46
77 20 16 19 24 47
78 11 20 19 24 25
79 13 20 19 24 46
80 13 20 19 24 47
81 12 27 19 24 25
82 20 27 19 24 46
83 20 27 19 24 47
84 21 16 19 27 26
85 21 16 19 27 33
86 14 20 19 27 26
87 14 20 19 27 33
88 14 24 19 27 26
89 14 24 19 27 33
90 12 19 20 21 17
91 8 19 20 21 22
92 8 19 20 21 23
93 20 38 20 21 17
94 9 38 20 21 22
95 9 38 20 21 23
96 20 39 20 21 17
97 9 39 20 21 22
98 9 39 20 21 23
99 34 17 21 22 40
100 34 17 21 22 41
101 34 17 21 22 42
102 33 20 21 22 40
103 33 20 21 22 41
104 33 20 21 22 42
105 32 23 21 22 40
106 32 23 21 22 41
107 32 23 21 22 42
108 34 17 21 23 43
109 34 17 21 23 44
110 34 17 21 23 45
111 33 20 21 23 43
112 33 20 21 23 44
113 33 20 21 23 45
114 32 22 21 23 43
115 32 22 21 23 44
116 32 22 21 23 45
117 12 19 24 25 26
118 8 19 24 25 28
119 8 19 24 25 29
120 20 46 24 25 26
121 9 46 24 25 28
122 9 46 24 25 29
123 20 47 24 25 26
124 9 47 24 25 28
125 9 47 24 25 29
126 14 24 25 26 27
127 14 24 25 26 30
128 10 28 25 26 27
129 10 28 25 26 30
130 10 29 25 26 27
131 10 29 25 26 30
132 33 24 25 28 48
133 33 24 25 28 49
134 33 24 25 28 50
135 34 26 25 28 48
136 34 26 25 28 49
137 34 26 25 28 50
138 32 29 25 28 48
139 32 29 25 28 49
140 32 29 25 28 50
141 33 24 25 29 51
142 33 24 25 29 52
143 33 24 25 29 53
144 34 26 25 29 51
145 34 26 25 29 52
146 34 26 25 29 53
147 32 28 25 29 51
148 32 28 25 29 52
149 32 28 25 29 53
150 15 25 26 27 19
151 16 25 26 27 33
152 16 30 26 27 19
153 22 30 26 27 33
154 16 25 26 30 31
155 17 25 26 30 54
156 22 27 26 30 31
157 24 27 26 30 54
158 16 19 27 33 32
159 17 19 27 33 55
160 22 26 27 33 32
161 24 26 27 33 55
162 22 26 30 31 32
163 25 26 30 31 34
164 24 54 30 31 32
165 30 54 30 31 34
166 22 30 31 32 33
167 5 30 31 32 35
168 25 34 31 32 33
169 7 34 31 32 35
170 22 31 32 33 27
171 24 31 32 33 55
172 5 35 32 33 27
173 6 35 32 33 55

Impropers
1 7 11 1 6 2
2 7 14 2 3 1
3 1 4 2 3 8
4 4 1 5 6 7
5 7 11 12 15 13
6 7 14 13 18 12
7 5 36 15 16 12
8 3 21 16 17 18
9 5 13 17 18 37
10 3 30 26 27 25
11 3 19 26 27 33
12 5 54 30 31 26
13 6 34 31 32 30
14 2 35 31 32 33
15 5 27 32 33 55
