LAMMPS data file. CGCMM style. atom_style full generated by VMD/TopoTools v1.7 on Thu Sep 05 19:17:53 EDT 2024
 35 atoms
 40 bonds
 66 angles
 97 dihedrals
 11 impropers
 11 atom types
 12 bond types
 26 angle types
 39 dihedral types
 7 improper types
 -0.500000 0.500000  xlo xhi
 -0.500000 0.500000  ylo yhi
 -0.500000 0.500000  zlo zhi

# Pair Coeffs
#
# 1  Lca1
# 2  Loh1
# 3  c33
# 4  c50
# 5  c52
# 6  ca0
# 7  ca1
# 8  cg0
# 9  n10
# 10  oh1
# 11  os0

# Bond Coeffs
#
# 1  Lca1-ca0
# 2  Lca1-ca1
# 3  Loh1-ca0
# 4  c33-c50
# 5  c50-c52
# 6  c50-ca0
# 7  ca0-ca0
# 8  ca0-ca1
# 9  ca0-cg0
# 10  ca0-oh1
# 11  ca0-os0
# 12  cg0-n10

# Angle Coeffs
#
# 1  Lca1-ca0-ca0
# 2  Lca1-ca0-cg0
# 3  Lca1-ca1-ca0
# 4  Loh1-ca0-ca0
# 5  Loh1-ca0-ca1
# 6  c33-c50-c33
# 7  c33-c50-c52
# 8  c33-c50-ca0
# 9  c50-c52-c50
# 10  c50-ca0-ca0
# 11  c50-ca0-ca1
# 12  c52-c50-c52
# 13  c52-c50-ca0
# 14  ca0-Lca1-ca1
# 15  ca0-c50-ca0
# 16  ca0-ca0-ca0
# 17  ca0-ca0-ca1
# 18  ca0-ca0-cg0
# 19  ca0-ca0-oh1
# 20  ca0-ca0-os0
# 21  ca0-ca1-ca0
# 22  ca0-cg0-n10
# 23  ca0-os0-ca0
# 24  ca1-ca0-cg0
# 25  ca1-ca0-oh1
# 26  ca1-ca0-os0

# Dihedral Coeffs
#
# 1  Lca1-ca0-ca0-ca0
# 2  Lca1-ca0-ca0-os0
# 3  Lca1-ca0-cg0-n10
# 4  Loh1-ca0-ca0-ca1
# 5  Loh1-ca0-ca0-oh1
# 6  Loh1-ca0-ca1-ca0
# 7  c33-c50-c52-c50
# 8  c33-c50-ca0-ca0
# 9  c33-c50-ca0-ca1
# 10  c50-ca0-ca0-c50
# 11  c50-ca0-ca0-ca1
# 12  c50-ca0-ca1-ca0
# 13  c52-c50-c52-c50
# 14  c52-c50-ca0-ca0
# 15  c52-c50-ca0-ca1
# 16  ca0-Lca1-ca1-ca0
# 17  ca0-c50-c52-c50
# 18  ca0-c50-ca0-ca0
# 19  ca0-c50-ca0-ca1
# 20  ca0-ca0-ca0-ca0
# 21  ca0-ca0-ca0-ca1
# 22  ca0-ca0-ca0-cg0
# 23  ca0-ca0-ca0-os0
# 24  ca0-ca0-ca1-Lca1
# 25  ca0-ca0-ca1-ca0
# 26  ca0-ca0-cg0-n10
# 27  ca0-ca0-os0-ca0
# 28  ca1-Lca1-ca0-ca0
# 29  ca1-Lca1-ca0-cg0
# 30  ca1-ca0-ca0-ca1
# 31  ca1-ca0-ca0-oh1
# 32  ca1-ca0-ca0-os0
# 33  ca1-ca0-cg0-n10
# 34  ca1-ca0-os0-ca0
# 35  cg0-ca0-ca0-os0
# 36  cg0-ca0-ca1-Lca1
# 37  oh1-ca0-ca1-ca0
# 38  os0-ca0-ca0-os0
# 39  os0-ca0-ca1-ca0

# Improper Coeffs
#
# 1  Lca1-ca0-ca0-cg0
# 2  Loh1-ca0-ca0-ca1
# 3  c50-ca0-ca0-ca1
# 4  ca0-ca0-ca0-os0
# 5  ca0-ca1-ca0-cg0
# 6  ca0-ca1-ca0-oh1
# 7  ca0-ca1-ca0-os0

 Masses

 1 12.000000 # Lca1
 2 12.000000 # Loh1
 3 12.011000 # c33
 4 12.011000 # c50
 5 12.011000 # c52
 6 12.011000 # ca0
 7 12.011000 # ca1
 8 12.011000 # cg0
 9 14.007000 # n10
 10 15.999000 # oh1
 11 15.999000 # os0

 Atoms # full

1 1 6 0.189200 1.213000 0.681000 -0.110000 # ca0 UNL
2 1 6 0.189200 1.311000 -0.631000 -0.590000 # ca0 UNL
3 1 6 0.097700 0.161000 -1.417000 -0.716000 # ca0 UNL
4 1 1 0.023900 -1.091000 -0.861000 -0.417000 # Lca1 UNL
5 1 7 0.023900 -1.193000 0.473000 -0.011000 # ca1 UNL
6 1 6 0.097700 -0.040000 1.250000 0.145000 # ca0 UNL
7 1 8 0.103000 -0.160000 2.618000 0.560000 # cg0 UNL
8 1 8 0.103000 0.244000 -2.796000 -1.098000 # cg0 UNL
9 1 9 -0.190700 0.282000 -3.921000 -1.381000 # n10 UNL
10 1 9 -0.190700 -0.289000 3.725000 0.886000 # n10 UNL
11 1 11 -0.447300 2.331000 1.428000 0.170000 # os0 UNL
12 1 6 0.171000 3.526000 0.768000 0.073000 # ca0 UNL
13 1 6 0.171000 3.634000 -0.475000 -0.555000 # ca0 UNL
14 1 11 -0.447300 2.523000 -1.173000 -0.956000 # os0 UNL
15 1 7 0.054600 4.639000 1.364000 0.654000 # ca1 UNL
16 1 6 -0.029400 5.864000 0.709000 0.563000 # ca0 UNL
17 1 6 -0.034000 6.003000 -0.452000 -0.201000 # ca0 UNL
18 1 7 0.054100 4.882000 -1.069000 -0.748000 # ca1 UNL
19 1 4 0.023000 7.125000 1.031000 1.323000 # c50 UNL
20 1 5 0.026900 8.173000 0.080000 0.685000 # c52 UNL
21 1 4 -0.008300 7.446000 -0.875000 -0.310000 # c50 UNL
22 1 3 0.015700 7.662000 -2.344000 0.066000 # c33 UNL
23 1 3 0.015700 7.955000 -0.622000 -1.739000 # c33 UNL
24 1 5 0.026900 6.906000 0.729000 2.839000 # c52 UNL
25 1 4 -0.008300 7.212000 2.010000 3.662000 # c50 UNL
26 1 6 -0.034000 7.544000 3.030000 2.602000 # ca0 UNL
27 1 6 -0.029500 7.516000 2.481000 1.312000 # ca0 UNL
28 1 3 0.015700 5.987000 2.432000 4.485000 # c33 UNL
29 1 3 0.015700 8.410000 1.772000 4.591000 # c33 UNL
30 1 7 0.053300 7.847000 4.375000 2.800000 # ca1 UNL
31 1 6 0.158500 8.125000 5.157000 1.684000 # ca0 UNL
32 1 6 0.158500 8.106000 4.604000 0.400000 # ca0 UNL
33 1 7 0.053600 7.801000 3.265000 0.198000 # ca1 UNL
34 1 10 -0.211000 8.421000 6.489000 1.794000 # oh1 UNL
35 1 2 -0.211000 8.384000 5.392000 -0.681000 # Loh1 UNL

 Bonds

1 7 1 2
2 7 1 6
3 11 1 11
4 7 2 3
5 11 2 14
6 1 3 4
7 9 3 8
8 2 4 5
9 8 5 6
10 9 6 7
11 12 7 10
12 12 8 9
13 11 11 12
14 7 12 13
15 8 12 15
16 11 13 14
17 8 13 18
18 8 15 16
19 7 16 17
20 6 16 19
21 8 17 18
22 6 17 21
23 5 19 20
24 5 19 24
25 6 19 27
26 5 20 21
27 4 21 22
28 4 21 23
29 5 24 25
30 6 25 26
31 4 25 28
32 4 25 29
33 7 26 27
34 8 26 30
35 8 27 33
36 8 30 31
37 7 31 32
38 10 31 34
39 8 32 33
40 3 32 35

 Angles

1 16 2 1 6
2 20 2 1 11
3 20 6 1 11
4 16 1 2 3
5 20 1 2 14
6 20 3 2 14
7 1 2 3 4
8 18 2 3 8
9 2 4 3 8
10 14 3 4 5
11 3 4 5 6
12 17 1 6 5
13 18 1 6 7
14 24 5 6 7
15 22 6 7 10
16 22 3 8 9
17 23 1 11 12
18 20 11 12 13
19 26 11 12 15
20 17 13 12 15
21 20 12 13 14
22 17 12 13 18
23 26 14 13 18
24 23 2 14 13
25 21 12 15 16
26 17 15 16 17
27 11 15 16 19
28 10 17 16 19
29 17 16 17 18
30 10 16 17 21
31 11 18 17 21
32 21 13 18 17
33 13 16 19 20
34 13 16 19 24
35 15 16 19 27
36 12 20 19 24
37 13 20 19 27
38 13 24 19 27
39 9 19 20 21
40 13 17 21 20
41 8 17 21 22
42 8 17 21 23
43 7 20 21 22
44 7 20 21 23
45 6 22 21 23
46 9 19 24 25
47 13 24 25 26
48 7 24 25 28
49 7 24 25 29
50 8 26 25 28
51 8 26 25 29
52 6 28 25 29
53 10 25 26 27
54 11 25 26 30
55 17 27 26 30
56 10 19 27 26
57 11 19 27 33
58 17 26 27 33
59 21 26 30 31
60 17 30 31 32
61 25 30 31 34
62 19 32 31 34
63 17 31 32 33
64 4 31 32 35
65 5 33 32 35
66 21 27 33 32

 Dihedrals

1 20 6 1 2 3
2 23 6 1 2 14
3 23 11 1 2 3
4 38 11 1 2 14
5 21 2 1 6 5
6 22 2 1 6 7
7 32 11 1 6 5
8 35 11 1 6 7
9 27 2 1 11 12
10 27 6 1 11 12
11 1 1 2 3 4
12 22 1 2 3 8
13 2 14 2 3 4
14 35 14 2 3 8
15 27 1 2 14 13
16 27 3 2 14 13
17 28 2 3 4 5
18 29 8 3 4 5
19 26 2 3 8 9
20 3 4 3 8 9
21 16 3 4 5 6
22 24 4 5 6 1
23 36 4 5 6 7
24 26 1 6 7 10
25 33 5 6 7 10
26 27 1 11 12 13
27 34 1 11 12 15
28 38 11 12 13 14
29 32 11 12 13 18
30 32 15 12 13 14
31 30 15 12 13 18
32 39 11 12 15 16
33 25 13 12 15 16
34 27 12 13 14 2
35 34 18 13 14 2
36 25 12 13 18 17
37 39 14 13 18 17
38 25 12 15 16 17
39 12 12 15 16 19
40 30 15 16 17 18
41 11 15 16 17 21
42 11 19 16 17 18
43 10 19 16 17 21
44 15 15 16 19 20
45 15 15 16 19 24
46 19 15 16 19 27
47 14 17 16 19 20
48 14 17 16 19 24
49 18 17 16 19 27
50 25 16 17 18 13
51 12 21 17 18 13
52 14 16 17 21 20
53 8 16 17 21 22
54 8 16 17 21 23
55 15 18 17 21 20
56 9 18 17 21 22
57 9 18 17 21 23
58 17 16 19 20 21
59 13 24 19 20 21
60 17 27 19 20 21
61 17 16 19 24 25
62 13 20 19 24 25
63 17 27 19 24 25
64 18 16 19 27 26
65 19 16 19 27 33
66 14 20 19 27 26
67 15 20 19 27 33
68 14 24 19 27 26
69 15 24 19 27 33
70 17 19 20 21 17
71 7 19 20 21 22
72 7 19 20 21 23
73 17 19 24 25 26
74 7 19 24 25 28
75 7 19 24 25 29
76 14 24 25 26 27
77 15 24 25 26 30
78 8 28 25 26 27
79 9 28 25 26 30
80 8 29 25 26 27
81 9 29 25 26 30
82 10 25 26 27 19
83 11 25 26 27 33
84 11 30 26 27 19
85 30 30 26 27 33
86 12 25 26 30 31
87 25 27 26 30 31
88 12 19 27 33 32
89 25 26 27 33 32
90 25 26 30 31 32
91 37 26 30 31 34
92 30 30 31 32 33
93 4 30 31 32 35
94 31 34 31 32 33
95 5 34 31 32 35
96 25 31 32 33 27
97 6 35 32 33 27

 Impropers

1 4 11 1 6 2
2 4 14 2 3 1
3 1 4 2 3 8
4 5 1 5 6 7
5 7 11 12 15 13
6 7 14 13 18 12
7 3 21 16 17 18
8 3 30 26 27 25
9 3 19 26 27 33
10 6 32 30 31 34
11 2 35 31 32 33

