LAMMPS data file. CGCMM style. atom_style full generated by VMD/TopoTools v1.7 on Thu Sep 05 19:17:53 EDT 2024
35 atoms
40 bonds
66 angles
97 dihedrals
11 impropers
11 atom types
12 bond types
26 angle types
39 dihderal types
7 improper types
-1.193 8.421 xlo xhi
-3.921 6.489 ylo yhi
-1.739 4.591 zlo zhi

Masses
1 13.018 # Lca1
2 17.008 # Loh1
3 15.033999999999999 # c33
4 12.01 # c50
5 14.026 # c52
6 12.01 # ca0
7 13.018 # ca1
8 12.01 # cg0
9 14.01 # n10
10 17.008 # oh1
11 16.0 # os0

Pair Coeffs
1 epsilon_placeholder sigma_placeholder # Lca1
2 epsilon_placeholder sigma_placeholder # Loh1
3 epsilon_placeholder sigma_placeholder # c33
4 epsilon_placeholder sigma_placeholder # c50
5 epsilon_placeholder sigma_placeholder # c52
6 epsilon_placeholder sigma_placeholder # ca0
7 epsilon_placeholder sigma_placeholder # ca1
8 epsilon_placeholder sigma_placeholder # cg0
9 epsilon_placeholder sigma_placeholder # n10
10 epsilon_placeholder sigma_placeholder # oh1
11 epsilon_placeholder sigma_placeholder # os0

Bond Coeffs
1 354.25 1.3986 # Lca1,ca0
2 354.25 1.3986 # Lca1,ca1
3 348.55 1.3644 # Loh1,ca0
4 227.64 1.5372 # c33,c50
5 220.1 1.5483 # c50,c52
6 243.6 1.5151 # c50,ca0
7 354.25 1.3986 # ca0,ca0
8 354.25 1.3986 # ca0,ca1
9 317.41 1.4318 # ca0,cg0
10 348.55 1.3644 # ca0,oh1
11 343.34 1.3688 # ca0,os0
12 744.03 1.1643 # cg0,n10

Angle Coeffs
1 63.67 120.02 # Lca1,ca0,ca0
2 62.85 120.25 # Lca1,ca0,cg0
3 63.67 120.02 # Lca1,ca1,ca0
4 78.86 119.9 # Loh1,ca0,ca0
5 78.86 119.9 # Loh1,ca0,ca1
6 60.44 110.28 # c33,c50,c33
7 59.33 113.6 # c33,c50,c52
8 60.11 113.07 # c33,c50,ca0
9 61.84 103.83 # c50,c52,c50
10 60.47 121.87 # c50,ca0,ca0
11 60.47 121.87 # c50,ca0,ca1
12 61.84 103.83 # c52,c50,c52
13 62.2 104.83 # c52,c50,ca0
14 63.67 120.02 # ca0,Lca1,ca1
15 60.71 112.52 # ca0,c50,ca0
16 63.67 120.02 # ca0,ca0,ca0
17 63.67 120.02 # ca0,ca0,ca1
18 62.85 120.25 # ca0,ca0,cg0
19 78.86 119.9 # ca0,ca0,oh1
20 79.0 119.11 # ca0,ca0,os0
21 63.67 120.02 # ca0,ca1,ca0
22 58.3 179.52 # ca0,cg0,n10
23 89.67 119.87 # ca0,os0,ca0
24 62.85 120.25 # ca1,ca0,cg0
25 78.86 119.9 # ca1,ca0,oh1
26 79.0 119.11 # ca1,ca0,os0

Dihedral Coeffs
1 1 3.625 2 180.0 # Lca1,ca0,ca0,ca0
2 1 3.625 2 180.0 # Lca1,ca0,ca0,os0
3 1 0.0 2.0 180.0 # Lca1,ca0,cg0,n10
4 1 3.625 2 180.0 # Loh1,ca0,ca0,ca1
5 1 3.625 2 180.0 # Loh1,ca0,ca0,oh1
6 1 3.625 2 180.0 # Loh1,ca0,ca1,ca0
7 1 0.2 1.0 180.0 # c33,c50,c52,c50
8 1 0.0 2.0 0.0 # c33,c50,ca0,ca0
9 1 0.0 2.0 0.0 # c33,c50,ca0,ca1
10 1 3.625 2 180.0 # c50,ca0,ca0,c50
11 1 3.625 2 180.0 # c50,ca0,ca0,ca1
12 1 3.625 2 180.0 # c50,ca0,ca1,ca0
13 1 0.2 1.0 180.0 # c52,c50,c52,c50
14 1 0.0 2.0 0.0 # c52,c50,ca0,ca0
15 1 0.0 2.0 0.0 # c52,c50,ca0,ca1
16 1 3.625 2 180.0 # ca0,Lca1,ca1,ca0
17 1 0.15555555555555556 3.0 0.0 # ca0,c50,c52,c50
18 1 0.0 2.0 0.0 # ca0,c50,ca0,ca0
19 1 0.0 2.0 0.0 # ca0,c50,ca0,ca1
20 1 3.625 2 180.0 # ca0,ca0,ca0,ca0
21 1 3.625 2 180.0 # ca0,ca0,ca0,ca1
22 1 3.625 2 180.0 # ca0,ca0,ca0,cg0
23 1 3.625 2 180.0 # ca0,ca0,ca0,os0
24 1 3.625 2 180.0 # ca0,ca0,ca1,Lca1
25 1 3.625 2 180.0 # ca0,ca0,ca1,ca0
26 1 0.0 2.0 180.0 # ca0,ca0,cg0,n10
27 1 0.9 2 180.0 # ca0,ca0,os0,ca0
28 1 3.625 2 180.0 # ca1,Lca1,ca0,ca0
29 1 3.625 2 180.0 # ca1,Lca1,ca0,cg0
30 1 3.625 2 180.0 # ca1,ca0,ca0,ca1
31 1 3.625 2 180.0 # ca1,ca0,ca0,oh1
32 1 3.625 2 180.0 # ca1,ca0,ca0,os0
33 1 0.0 2.0 180.0 # ca1,ca0,cg0,n10
34 1 0.9 2 180.0 # ca1,ca0,os0,ca0
35 1 3.625 2 180.0 # cg0,ca0,ca0,os0
36 1 3.625 2 180.0 # cg0,ca0,ca1,Lca1
37 1 3.625 2 180.0 # oh1,ca0,ca1,ca0
38 1 3.625 2 180.0 # os0,ca0,ca0,os0
39 1 3.625 2 180.0 # os0,ca0,ca1,ca0

Improper Coeffs
1 1.1 -1 2 # Lca1,ca0,ca0,cg0
2 1.1 -1 2 # Loh1,ca0,ca0,ca1
3 1.1 -1 2 # c50,ca0,ca0,ca1
4 1.1 -1 2 # ca0,ca0,ca0,os0
5 1.1 -1 2 # ca0,ca1,ca0,cg0
6 1.1 -1 2 # ca0,ca1,ca0,oh1
7 1.1 -1 2 # ca0,ca1,ca0,os0

Atoms # full
1 1 6 0.1892 1.213 0.681 -0.11 # ca
2 1 6 0.1892 1.311 -0.631 -0.59 # ca
3 1 6 0.0977 0.161 -1.417 -0.716 # ca
4 1 1 0.0239 -1.091 -0.861 -0.417 # ca
5 1 7 0.0239 -1.193 0.473 -0.011 # ca
6 1 6 0.0977 -0.04 1.25 0.145 # ca
7 1 8 0.103 -0.16 2.618 0.56 # cg
8 1 8 0.103 0.244 -2.796 -1.098 # cg
9 1 9 -0.1907 0.282 -3.921 -1.381 # n1
10 1 9 -0.1907 -0.289 3.725 0.886 # n1
11 1 11 -0.4473 2.331 1.428 0.17 # os
12 1 6 0.171 3.526 0.768 0.073 # ca
13 1 6 0.171 3.634 -0.475 -0.555 # ca
14 1 11 -0.4473 2.523 -1.173 -0.956 # os
15 1 7 0.0546 4.639 1.364 0.654 # ca
16 1 6 -0.0294 5.864 0.709 0.563 # ca
17 1 6 -0.034 6.003 -0.452 -0.201 # ca
18 1 7 0.0541 4.882 -1.069 -0.748 # ca
19 1 4 0.023 7.125 1.031 1.323 # c5
20 1 5 0.0269 8.173 0.08 0.685 # c5
21 1 4 -0.0083 7.446 -0.875 -0.31 # c5
22 1 3 0.0157 7.662 -2.344 0.066 # c3
23 1 3 0.0157 7.955 -0.622 -1.739 # c3
24 1 5 0.0269 6.906 0.729 2.839 # c5
25 1 4 -0.0083 7.212 2.01 3.662 # c5
26 1 6 -0.034 7.544 3.03 2.602 # ca
27 1 6 -0.0295 7.516 2.481 1.312 # ca
28 1 3 0.0157 5.987 2.432 4.485 # c3
29 1 3 0.0157 8.41 1.772 4.591 # c3
30 1 7 0.0533 7.847 4.375 2.8 # ca
31 1 6 0.1585 8.125 5.157 1.684 # ca
32 1 6 0.1585 8.106 4.604 0.4 # ca
33 1 7 0.0536 7.801 3.265 0.198 # ca
34 1 10 -0.211 8.421 6.489 1.794 # oh
35 1 2 -0.211 8.384 5.392 -0.681 # oh

Bonds
1 7 1 2
2 7 1 6
3 11 1 11
4 7 2 3
5 11 2 14
6 1 3 4
7 9 3 8
8 2 4 5
9 8 5 6
10 9 6 7
11 12 7 10
12 12 8 9
13 11 11 12
14 7 12 13
15 8 12 15
16 11 13 14
17 8 13 18
18 8 15 16
19 7 16 17
20 6 16 19
21 8 17 18
22 6 17 21
23 5 19 20
24 5 19 24
25 6 19 27
26 5 20 21
27 4 21 22
28 4 21 23
29 5 24 25
30 6 25 26
31 4 25 28
32 4 25 29
33 7 26 27
34 8 26 30
35 8 27 33
36 8 30 31
37 7 31 32
38 10 31 34
39 8 32 33
40 3 32 35

Angles
1 16 2 1 6
2 20 2 1 11
3 20 6 1 11
4 16 1 2 3
5 20 1 2 14
6 20 3 2 14
7 1 2 3 4
8 18 2 3 8
9 2 4 3 8
10 14 3 4 5
11 3 4 5 6
12 17 1 6 5
13 18 1 6 7
14 24 5 6 7
15 22 6 7 10
16 22 3 8 9
17 23 1 11 12
18 20 11 12 13
19 26 11 12 15
20 17 13 12 15
21 20 12 13 14
22 17 12 13 18
23 26 14 13 18
24 23 2 14 13
25 21 12 15 16
26 17 15 16 17
27 11 15 16 19
28 10 17 16 19
29 17 16 17 18
30 10 16 17 21
31 11 18 17 21
32 21 13 18 17
33 13 16 19 20
34 13 16 19 24
35 15 16 19 27
36 12 20 19 24
37 13 20 19 27
38 13 24 19 27
39 9 19 20 21
40 13 17 21 20
41 8 17 21 22
42 8 17 21 23
43 7 20 21 22
44 7 20 21 23
45 6 22 21 23
46 9 19 24 25
47 13 24 25 26
48 7 24 25 28
49 7 24 25 29
50 8 26 25 28
51 8 26 25 29
52 6 28 25 29
53 10 25 26 27
54 11 25 26 30
55 17 27 26 30
56 10 19 27 26
57 11 19 27 33
58 17 26 27 33
59 21 26 30 31
60 17 30 31 32
61 25 30 31 34
62 19 32 31 34
63 17 31 32 33
64 4 31 32 35
65 5 33 32 35
66 21 27 33 32

Dihedrals
1 20 6 1 2 3
2 23 6 1 2 14
3 23 11 1 2 3
4 38 11 1 2 14
5 21 2 1 6 5
6 22 2 1 6 7
7 32 11 1 6 5
8 35 11 1 6 7
9 27 2 1 11 12
10 27 6 1 11 12
11 1 1 2 3 4
12 22 1 2 3 8
13 2 14 2 3 4
14 35 14 2 3 8
15 27 1 2 14 13
16 27 3 2 14 13
17 28 2 3 4 5
18 29 8 3 4 5
19 26 2 3 8 9
20 3 4 3 8 9
21 16 3 4 5 6
22 24 4 5 6 1
23 36 4 5 6 7
24 26 1 6 7 10
25 33 5 6 7 10
26 27 1 11 12 13
27 34 1 11 12 15
28 38 11 12 13 14
29 32 11 12 13 18
30 32 15 12 13 14
31 30 15 12 13 18
32 39 11 12 15 16
33 25 13 12 15 16
34 27 12 13 14 2
35 34 18 13 14 2
36 25 12 13 18 17
37 39 14 13 18 17
38 25 12 15 16 17
39 12 12 15 16 19
40 30 15 16 17 18
41 11 15 16 17 21
42 11 19 16 17 18
43 10 19 16 17 21
44 15 15 16 19 20
45 15 15 16 19 24
46 19 15 16 19 27
47 14 17 16 19 20
48 14 17 16 19 24
49 18 17 16 19 27
50 25 16 17 18 13
51 12 21 17 18 13
52 14 16 17 21 20
53 8 16 17 21 22
54 8 16 17 21 23
55 15 18 17 21 20
56 9 18 17 21 22
57 9 18 17 21 23
58 17 16 19 20 21
59 13 24 19 20 21
60 17 27 19 20 21
61 17 16 19 24 25
62 13 20 19 24 25
63 17 27 19 24 25
64 18 16 19 27 26
65 19 16 19 27 33
66 14 20 19 27 26
67 15 20 19 27 33
68 14 24 19 27 26
69 15 24 19 27 33
70 17 19 20 21 17
71 7 19 20 21 22
72 7 19 20 21 23
73 17 19 24 25 26
74 7 19 24 25 28
75 7 19 24 25 29
76 14 24 25 26 27
77 15 24 25 26 30
78 8 28 25 26 27
79 9 28 25 26 30
80 8 29 25 26 27
81 9 29 25 26 30
82 10 25 26 27 19
83 11 25 26 27 33
84 11 30 26 27 19
85 30 30 26 27 33
86 12 25 26 30 31
87 25 27 26 30 31
88 12 19 27 33 32
89 25 26 27 33 32
90 25 26 30 31 32
91 37 26 30 31 34
92 30 30 31 32 33
93 4 30 31 32 35
94 31 34 31 32 33
95 5 34 31 32 35
96 25 31 32 33 27
97 6 35 32 33 27

Impropers
1 4 11 1 6 2
2 4 14 2 3 1
3 1 4 2 3 8
4 5 1 5 6 7
5 7 11 12 15 13
6 7 14 13 18 12
7 3 21 16 17 18
8 3 30 26 27 25
9 3 19 26 27 33
10 6 32 30 31 34
11 2 35 31 32 33
